REMARK SMILES CN(C)C(=O)COC(=O)Cc1ccc(OC(=O)c2ccc(N=C(N)N)cc2)cc1
REMARK SMILES IDX 11 1 12 2 13 3 14 4 28 5 29 6 10 7 8 8 9 9 7 10 6 11 4 12
REMARK SMILES IDX 2 13 5 14 1 15 3 16 15 17 16 18 17 19 18 20 19 21 27 22
REMARK SMILES IDX 20 23 26 24 21 25 22 26 23 27 24 28 25 29
REMARK H PARENT 24 30 24 31 25 32 25 33
ROOT
ATOM      1  C   UNL     1      -2.375  -0.287  -1.238  1.00  0.00    -0.037 A 
ATOM      2  C   UNL     1      -1.620  -0.023  -2.392  1.00  0.00    +0.008 A 
ATOM      3  C   UNL     1      -0.226  -0.009  -2.337  1.00  0.00    +0.047 A 
ATOM      4  C   UNL     1       0.412  -0.266  -1.127  1.00  0.00    +0.131 A 
ATOM      5  C   UNL     1      -0.317  -0.501   0.037  1.00  0.00    +0.047 A 
ATOM      6  C   UNL     1      -1.711  -0.517  -0.022  1.00  0.00    +0.008 A 
ENDROOT
BRANCH   1   7
ATOM      7  C   UNL     1      -3.884  -0.298  -1.296  1.00  0.00    +0.158 C 
BRANCH   7   8
ATOM      8  C   UNL     1      -4.530   1.013  -0.902  1.00  0.00    +0.310 C 
ATOM      9  O   UNL     1      -3.953   2.055  -0.634  1.00  0.00    -0.252 OA
BRANCH   8  10
ATOM     10  O   UNL     1      -5.887   0.853  -0.899  1.00  0.00    -0.455 OA
BRANCH  10  11
ATOM     11  C   UNL     1      -6.626   2.010  -0.509  1.00  0.00    +0.332 C 
BRANCH  11  12
ATOM     12  C   UNL     1      -6.558   2.379   0.982  1.00  0.00    +0.260 C 
ATOM     13  N   UNL     1      -6.778   1.371   1.917  1.00  0.00    -0.346 N 
ATOM     14  O   UNL     1      -6.358   3.549   1.317  1.00  0.00    -0.271 OA
ATOM     15  C   UNL     1      -6.547   1.656   3.324  1.00  0.00    +0.146 C 
ATOM     16  C   UNL     1      -7.156   0.006   1.592  1.00  0.00    +0.146 C 
ENDBRANCH  11  12
ENDBRANCH  10  11
ENDBRANCH   8  10
ENDBRANCH   7   8
ENDBRANCH   1   7
BRANCH   4  17
ATOM     17  O   UNL     1       1.808  -0.188  -1.094  1.00  0.00    -0.423 OA
BRANCH  17  18
ATOM     18  C   UNL     1       2.452  -1.381  -0.828  1.00  0.00    +0.343 C 
ATOM     19  O   UNL     1       1.940  -2.474  -0.637  1.00  0.00    -0.246 OA
BRANCH  18  20
ATOM     20  C   UNL     1       3.926  -1.160  -0.804  1.00  0.00    +0.060 A 
ATOM     21  C   UNL     1       4.506   0.106  -0.964  1.00  0.00    +0.018 A 
ATOM     22  C   UNL     1       4.755  -2.275  -0.615  1.00  0.00    +0.018 A 
ATOM     23  C   UNL     1       5.897   0.249  -0.931  1.00  0.00    +0.029 A 
ATOM     24  C   UNL     1       6.145  -2.123  -0.585  1.00  0.00    +0.029 A 
ATOM     25  C   UNL     1       6.722  -0.860  -0.730  1.00  0.00    +0.067 A 
BRANCH  25  26
ATOM     26  N   UNL     1       8.112  -0.701  -0.720  1.00  0.00    -0.216 NA
ATOM     27  C   UNL     1       8.736  -0.648   0.407  1.00  0.00    +0.191 C 
ATOM     28  N   UNL     1       8.253  -0.721   1.669  1.00  0.00    -0.370 N 
ATOM     29  N   UNL     1      10.081  -0.507   0.435  1.00  0.00    -0.370 N 
ATOM     30  H   UNL     1       8.722  -0.076   2.294  1.00  0.00    +0.159 HD
ATOM     31  H   UNL     1       7.247  -0.603   1.720  1.00  0.00    +0.159 HD
ATOM     32  H   UNL     1      10.519  -1.156   1.076  1.00  0.00    +0.159 HD
ATOM     33  H   UNL     1      10.458  -0.623  -0.502  1.00  0.00    +0.159 HD
ENDBRANCH  25  26
ENDBRANCH  18  20
ENDBRANCH  17  18
ENDBRANCH   4  17
TORSDOF 9
