REMARK SMILES N=C(N)c1ccc2cc(OC(=O)c3ccc(N=C(N)N)cc3)ccc2c1
REMARK SMILES IDX 11 1 12 2 13 3 14 4 15 5 16 6 22 7 21 8 17 9 18 10 19 11
REMARK SMILES IDX 20 12 10 17 9 18 8 19 23 20 7 21 24 22 25 23 6 24 26 25 5 26
REMARK SMILES IDX 4 27 2 28 1 29 3 30
REMARK H PARENT 19 13 19 14 20 15 20 16 1 31 3 32 3 33
ROOT
ATOM      1  C   UNL     1       1.151  -0.874  -0.206  1.00  0.00    +0.343 C 
ATOM      2  O   UNL     1       0.797  -1.905   0.346  1.00  0.00    -0.246 OA
ENDROOT
BRANCH   1   3
ATOM      3  C   UNL     1       2.582  -0.506  -0.401  1.00  0.00    +0.060 A 
ATOM      4  C   UNL     1       2.981   0.688  -1.018  1.00  0.00    +0.018 A 
ATOM      5  C   UNL     1       4.341   0.976  -1.173  1.00  0.00    +0.029 A 
ATOM      6  C   UNL     1       5.315   0.088  -0.711  1.00  0.00    +0.067 A 
ATOM      7  C   UNL     1       3.559  -1.403   0.051  1.00  0.00    +0.018 A 
ATOM      8  C   UNL     1       4.916  -1.108  -0.110  1.00  0.00    +0.029 A 
BRANCH   6   9
ATOM      9  N   UNL     1       6.670   0.383  -0.896  1.00  0.00    -0.216 NA
ATOM     10  C   UNL     1       7.362   0.838   0.092  1.00  0.00    +0.191 C 
ATOM     11  N   UNL     1       8.675   1.116  -0.069  1.00  0.00    -0.370 N 
ATOM     12  N   UNL     1       6.985   1.104   1.364  1.00  0.00    -0.370 N 
ATOM     13  H   UNL     1       8.995   0.760  -0.965  1.00  0.00    +0.159 HD
ATOM     14  H   UNL     1       9.239   0.740   0.684  1.00  0.00    +0.159 HD
ATOM     15  H   UNL     1       5.979   1.132   1.487  1.00  0.00    +0.159 HD
ATOM     16  H   UNL     1       7.414   1.951   1.720  1.00  0.00    +0.159 HD
ENDBRANCH   6   9
ENDBRANCH   1   3
BRANCH   1  17
ATOM     17  O   UNL     1       0.339   0.115  -0.730  1.00  0.00    -0.423 OA
BRANCH  17  18
ATOM     18  C   UNL     1      -1.030  -0.143  -0.612  1.00  0.00    +0.131 A 
ATOM     19  C   UNL     1      -1.774   0.651   0.258  1.00  0.00    +0.056 A 
ATOM     20  C   UNL     1      -1.637  -1.109  -1.408  1.00  0.00    +0.048 A 
ATOM     21  C   UNL     1      -3.159   0.460   0.368  1.00  0.00    -0.015 A 
ATOM     22  C   UNL     1      -3.014  -1.309  -1.305  1.00  0.00    +0.012 A 
ATOM     23  C   UNL     1      -3.788  -0.537  -0.421  1.00  0.00    -0.017 A 
ATOM     24  C   UNL     1      -3.934   1.238   1.243  1.00  0.00    +0.009 A 
ATOM     25  C   UNL     1      -5.174  -0.731  -0.309  1.00  0.00    +0.020 A 
ATOM     26  C   UNL     1      -5.312   1.038   1.343  1.00  0.00    +0.012 A 
ATOM     27  C   UNL     1      -5.929   0.054   0.569  1.00  0.00    +0.017 A 
BRANCH  27  28
ATOM     28  C   UNL     1      -7.394  -0.156   0.685  1.00  0.00    +0.122 C 
ATOM     29  N   UNL     1      -8.227   0.836   0.699  1.00  0.00    -0.284 NA
ATOM     30  N   UNL     1      -7.911  -1.409   0.780  1.00  0.00    -0.384 N 
ATOM     31  H   UNL     1      -7.734   1.729   0.596  1.00  0.00    +0.189 HD
ATOM     32  H   UNL     1      -8.912  -1.440   0.617  1.00  0.00    +0.158 HD
ATOM     33  H   UNL     1      -7.391  -2.197   0.422  1.00  0.00    +0.158 HD
ENDBRANCH  27  28
ENDBRANCH  17  18
ENDBRANCH   1  17
TORSDOF 5
