REMARK SMILES COC(=O)c1ccc2c(C(=Nc3ccc(N(C)C(=O)CN4CCN(C)CC4)cc3)c3ccccc3)c(O)[nH]c2c1
REMARK SMILES IDX 15 1 14 2 13 3 12 4 29 5 28 6 16 7 17 8 18 9 19 10 20 11
REMARK SMILES IDX 21 12 24 13 23 14 26 15 22 16 27 17 25 18 11 19 10 20 30 21
REMARK SMILES IDX 31 22 35 23 32 24 34 25 33 26 9 27 36 28 8 29 38 30 39 31
REMARK SMILES IDX 7 32 40 33 6 34 5 35 37 37 3 39 4 40 2 41 1 42
REMARK H PARENT 38 36 37 38
ROOT
ATOM      1  C   UNL     1       1.821   0.220   1.047  1.00  0.00    +0.043 A 
ATOM      2  C   UNL     1       1.412   1.002  -0.044  1.00  0.00    +0.028 A 
ATOM      3  C   UNL     1       0.068   1.072  -0.438  1.00  0.00    +0.030 A 
ATOM      4  C   UNL     1      -0.913   0.369   0.253  1.00  0.00    +0.064 A 
ATOM      5  C   UNL     1      -0.524  -0.453   1.306  1.00  0.00    +0.030 A 
ATOM      6  C   UNL     1       0.821  -0.525   1.698  1.00  0.00    +0.028 A 
ENDROOT
BRANCH   1   7
ATOM      7  N   UNL     1       3.209   0.133   1.453  1.00  0.00    -0.314 N 
ATOM      8  C   UNL     1       3.563  -0.929   2.397  1.00  0.00    +0.153 C 
BRANCH   7   9
ATOM      9  C   UNL     1       4.176   1.048   0.998  1.00  0.00    +0.240 C 
ATOM     10  O   UNL     1       3.914   2.157   0.518  1.00  0.00    -0.273 OA
BRANCH   9  11
ATOM     11  C   UNL     1       5.664   0.669   1.130  1.00  0.00    +0.185 C 
BRANCH  11  12
ATOM     12  N   UNL     1       5.975  -0.632   0.499  1.00  0.00    -0.292 NA
ATOM     13  N   UNL     1       8.015  -1.608  -1.539  1.00  0.00    -0.304 NA
ATOM     14  C   UNL     1       7.071  -0.501  -1.793  1.00  0.00    +0.099 C 
ATOM     15  C   UNL     1       7.936  -2.082  -0.143  1.00  0.00    +0.099 C 
ATOM     16  C   UNL     1       5.770  -0.618  -0.969  1.00  0.00    +0.100 C 
ATOM     17  C   UNL     1       7.353  -1.044   0.841  1.00  0.00    +0.100 C 
ATOM     18  C   UNL     1       9.372  -1.228  -1.917  1.00  0.00    +0.105 C 
ENDBRANCH  11  12
ENDBRANCH   9  11
ENDBRANCH   7   9
ENDBRANCH   1   7
BRANCH   4  19
ATOM     19  N   UNL     1      -2.247   0.445  -0.162  1.00  0.00    -0.248 NA
ATOM     20  C   UNL     1      -3.135   1.096   0.532  1.00  0.00    +0.084 C 
BRANCH  20  21
ATOM     21  C   UNL     1      -2.863   1.855   1.780  1.00  0.00    +0.001 A 
ATOM     22  C   UNL     1      -3.472   1.457   2.975  1.00  0.00    +0.010 A 
ATOM     23  C   UNL     1      -2.029   2.978   1.748  1.00  0.00    +0.010 A 
ATOM     24  C   UNL     1      -3.240   2.185   4.142  1.00  0.00    +0.001 A 
ATOM     25  C   UNL     1      -1.799   3.699   2.920  1.00  0.00    +0.001 A 
ATOM     26  C   UNL     1      -2.405   3.303   4.113  1.00  0.00    +0.000 A 
ENDBRANCH  20  21
BRANCH  20  27
ATOM     27  C   UNL     1      -4.518   1.057   0.036  1.00  0.00    +0.070 A 
ATOM     28  C   UNL     1      -5.526   1.989   0.258  1.00  0.00    +0.199 A 
ATOM     29  C   UNL     1      -5.104   0.028  -0.795  1.00  0.00    +0.013 A 
ATOM     30  N   UNL     1      -6.658   1.554  -0.373  1.00  0.00    -0.325 N 
ATOM     31  C   UNL     1      -6.437   0.368  -1.022  1.00  0.00    +0.050 A 
ATOM     32  C   UNL     1      -4.626  -1.173  -1.365  1.00  0.00    +0.012 A 
ATOM     33  C   UNL     1      -7.313  -0.416  -1.788  1.00  0.00    +0.042 A 
ATOM     34  C   UNL     1      -5.482  -1.974  -2.133  1.00  0.00    +0.016 A 
ATOM     35  C   UNL     1      -6.813  -1.604  -2.346  1.00  0.00    +0.062 A 
ATOM     36  H   UNL     1      -7.531   2.060  -0.364  1.00  0.00    +0.170 HD
BRANCH  28  37
ATOM     37  O   UNL     1      -5.599   3.147   0.905  1.00  0.00    -0.494 OA
ATOM     38  H   UNL     1      -4.720   3.380   1.250  1.00  0.00    +0.295 HD
ENDBRANCH  28  37
BRANCH  35  39
ATOM     39  C   UNL     1      -7.664  -2.505  -3.173  1.00  0.00    +0.337 C 
ATOM     40  O   UNL     1      -7.270  -3.557  -3.653  1.00  0.00    -0.246 OA
BRANCH  39  41
ATOM     41  O   UNL     1      -8.914  -1.994  -3.309  1.00  0.00    -0.465 OA
ATOM     42  C   UNL     1      -9.788  -2.805  -4.096  1.00  0.00    +0.282 C 
ENDBRANCH  39  41
ENDBRANCH  35  39
ENDBRANCH  20  27
ENDBRANCH   4  19
TORSDOF 10
