REMARK SMILES Cc1ccc(=O)n(-c2ccccc2)c1
REMARK SMILES IDX 1 1 2 2 14 3 7 4 5 5 6 6 4 7 3 8 8 9 9 10 13 11 10 12 12 13
REMARK SMILES IDX 11 14
REMARK H PARENT
ROOT
ATOM      1  C   UNL     1       3.550  -1.298   0.143  1.00  0.00    +0.046 C 
ATOM      2  C   UNL     1       2.480  -0.259   0.001  1.00  0.00    -0.034 C 
ATOM      3  C   UNL     1       1.169  -0.541   0.055  1.00  0.00    +0.098 C 
ATOM      4  N   UNL     1       0.170   0.432  -0.059  1.00  0.00    -0.284 N 
ATOM      5  C   UNL     1       0.531   1.786  -0.247  1.00  0.00    +0.255 C 
ATOM      6  O   UNL     1      -0.222   2.745  -0.413  1.00  0.00    -0.269 OA
ATOM      7  C   UNL     1       1.992   2.082  -0.291  1.00  0.00    +0.072 C 
ATOM      8  C   UNL     1       2.899   1.107  -0.182  1.00  0.00    +0.010 C 
ENDROOT
BRANCH   4   9
ATOM      9  C   UNL     1      -1.230   0.060  -0.000  1.00  0.00    +0.049 A 
ATOM     10  C   UNL     1      -2.213   0.946   0.468  1.00  0.00    +0.027 A 
ATOM     11  C   UNL     1      -1.656  -1.221  -0.397  1.00  0.00    +0.027 A 
ATOM     12  C   UNL     1      -3.561   0.571   0.538  1.00  0.00    +0.002 A 
ATOM     13  C   UNL     1      -3.003  -1.597  -0.330  1.00  0.00    +0.002 A 
ATOM     14  C   UNL     1      -3.956  -0.701   0.139  1.00  0.00    +0.000 A 
ENDBRANCH   4   9
TORSDOF 1
